[ {"atomicNumber": 1,   "symbol": "H",  "name": "Hydrogen",      "atomicMass": "1.00794(4)",     "weightStandard": "[1.007 84, 1.008 11]",   "electronConfiguration": "1s1",                    "electronegativity": 2.2,  "atomicRadius": 53,  "ionizationEnergy": 1312.0,  "electronAffinity": "72.769(2)"      },
  {"atomicNumber": 2,   "symbol": "He", "name": "Helium",        "atomicMass": "4.002602(2)",    "weightStandard": "4.002 602(2)",           "electronConfiguration": "1s2",                    "electronegativity": "",   "atomicRadius": 31,  "ionizationEnergy": 2372.3,  "electronAffinity": "-48(20) est."   },
  {"atomicNumber": 3,   "symbol": "Li", "name": "Lithium",       "atomicMass": "6.941(2)",       "weightStandard": "[6.938, 6.997]",         "electronConfiguration": "[He] 2s1",               "electronegativity": 0.98, "atomicRadius": 167, "ionizationEnergy": 520.2,   "electronAffinity": "59.632 6(21)"   },
  {"atomicNumber": 4,   "symbol": "Be", "name": "Beryllium",     "atomicMass": "9.012182(3)",    "weightStandard": "9.012 1831(5)",          "electronConfiguration": "[He] 2s2",               "electronegativity": 1.57, "atomicRadius": 112, "ionizationEnergy": 899.5,   "electronAffinity": "-48(20) est."   },
  {"atomicNumber": 5,   "symbol": "B",  "name": "Boron",         "atomicMass": "10.811(7)",      "weightStandard": "[10.806, 10.821]",       "electronConfiguration": "[He] 2s2 2p1",           "electronegativity": 2.04, "atomicRadius": 87,  "ionizationEnergy": 800.6,   "electronAffinity": "26.989(3)"      },
  {"atomicNumber": 6,   "symbol": "C",  "name": "Carbon",        "atomicMass": "12.0107(8)",     "weightStandard": "[12.0096, 12.0116]",     "electronConfiguration": "[He] 2s2 2p2",           "electronegativity": 2.55, "atomicRadius": 67,  "ionizationEnergy": 1086.5,  "electronAffinity": "121.776 3(1)"   },
  {"atomicNumber": 7,   "symbol": "N",  "name": "Nitrogen",      "atomicMass": "14.0067(2)",     "weightStandard": "[14.006 43, 14.007 28]", "electronConfiguration": "[He] 2s2 2p3",           "electronegativity": 3.04, "atomicRadius": 56,  "ionizationEnergy": 1402.3,  "electronAffinity": "-6.8"           },
  {"atomicNumber": 8,   "symbol": "O",  "name": "Oxygen",        "atomicMass": "15.9994(3)",     "weightStandard": "[15.999 03, 15.999 77]", "electronConfiguration": "[He] 2s2 2p4",           "electronegativity": 3.44, "atomicRadius": 48,  "ionizationEnergy": 1313.9,  "electronAffinity": "140.975 970(9)" },
  {"atomicNumber": 9,   "symbol": "F",  "name": "Fluorine",      "atomicMass": "18.9984032(5)",  "weightStandard": "18.998 403 163(6)",      "electronConfiguration": "[He] 2s2 2p5",           "electronegativity": 3.98, "atomicRadius": 42,  "ionizationEnergy": 1681.0,  "electronAffinity": "328.164 9(3)"   },
  {"atomicNumber": 10,  "symbol": "Ne", "name": "Neon",          "atomicMass": "20.1797(6)",     "weightStandard": "20.1797(6)",             "electronConfiguration": "[He] 2s2 2p6",           "electronegativity": "",   "atomicRadius": 38,  "ionizationEnergy": 2080.7,  "electronAffinity": "-116(19) est."  },
  {"atomicNumber": 11,  "symbol": "Na", "name": "Sodium",        "atomicMass": "22.98976928(2)", "weightStandard": "22.989 769 28(2)",       "electronConfiguration": "[Ne] 3s1",               "electronegativity": 0.93, "atomicRadius": 190, "ionizationEnergy": 495.8,   "electronAffinity": "52.867(3)"      },
  {"atomicNumber": 12,  "symbol": "Mg", "name": "Magnesium",     "atomicMass": "24.3050(6)",     "weightStandard": "[24.304, 24.307]",       "electronConfiguration": "[Ne] 3s2",               "electronegativity": 1.31, "atomicRadius": 145, "ionizationEnergy": 737.7,   "electronAffinity": "-40(19) est."   },
  {"atomicNumber": 13,  "symbol": "Al", "name": "Aluminum",      "atomicMass": "26.9815386(8)",  "weightStandard": "26.981 5384(3)",         "electronConfiguration": "[Ne] 3s2 3p1",           "electronegativity": 1.61, "atomicRadius": 118, "ionizationEnergy": 577.5,   "electronAffinity": "41.762(5)"      },
  {"atomicNumber": 14,  "symbol": "Si", "name": "Silicon",       "atomicMass": "28.0855(3)",     "weightStandard": "[28.084, 28.086]",       "electronConfiguration": "[Ne] 3s2 3p2",           "electronegativity": 1.9,  "atomicRadius": 111, "ionizationEnergy": 786.5,   "electronAffinity": "134.068 4(1)"   },
  {"atomicNumber": 15,  "symbol": "P",  "name": "Phosphorus",    "atomicMass": "30.973762(2)",   "weightStandard": "30.973 761 998(5)",      "electronConfiguration": "[Ne] 3s2 3p3",           "electronegativity": 2.19, "atomicRadius": 98,  "ionizationEnergy": 1011.8,  "electronAffinity": "72.037(1)"      },
  {"atomicNumber": 16,  "symbol": "S",  "name": "Sulfur",        "atomicMass": "32.065(5)",      "weightStandard": "[32.059, 32.076]",       "electronConfiguration": "[Ne] 3s2 3p4",           "electronegativity": 2.58, "atomicRadius": 88,  "ionizationEnergy": 999.6,   "electronAffinity": "200.410 1(1)"   },
  {"atomicNumber": 17,  "symbol": "Cl", "name": "Chlorine",      "atomicMass": "35.453(2)",      "weightStandard": "[35.446, 35.457]",       "electronConfiguration": "[Ne] 3s2 3p5",           "electronegativity": 3.16, "atomicRadius": 79,  "ionizationEnergy": 1251.2,  "electronAffinity": "348.575(3)"     },
  {"atomicNumber": 18,  "symbol": "Ar", "name": "Argon",         "atomicMass": "39.948(1)",      "weightStandard": "[39.792, 39.963]",       "electronConfiguration": "[Ne] 3s2 3p6",           "electronegativity": "",   "atomicRadius": 71,  "ionizationEnergy": 1520.6,  "electronAffinity": "-96(20) est."   },
  {"atomicNumber": 19,  "symbol": "K",  "name": "Potassium",     "atomicMass": "39.0983(1)",     "weightStandard": "39.0983(1)",             "electronConfiguration": "[Ar] 4s1",               "electronegativity": 0.82, "atomicRadius": 243, "ionizationEnergy": 418.8,   "electronAffinity": "48.383(2)"      },
  {"atomicNumber": 20,  "symbol": "Ca", "name": "Calcium",       "atomicMass": "40.078(4)",      "weightStandard": "40.078(4)",              "electronConfiguration": "[Ar] 4s2",               "electronegativity": 1,    "atomicRadius": 194, "ionizationEnergy": 589.8,   "electronAffinity": "2.37(1)"        },
  {"atomicNumber": 21,  "symbol": "Sc", "name": "Scandium",      "atomicMass": "44.955912(6)",   "weightStandard": "44.955 908(5)",          "electronConfiguration": "[Ar] 3d1 4s2",           "electronegativity": 1.36, "atomicRadius": 184, "ionizationEnergy": 633.1,   "electronAffinity": "17.307 6(22)"   },
  {"atomicNumber": 22,  "symbol": "Ti", "name": "Titanium",      "atomicMass": "47.867(1)",      "weightStandard": "47.867(1)",              "electronConfiguration": "[Ar] 3d2 4s2",           "electronegativity": 1.54, "atomicRadius": 176, "ionizationEnergy": 658.8,   "electronAffinity": "7.289(5)"       },
  {"atomicNumber": 23,  "symbol": "V",  "name": "Vanadium",      "atomicMass": "50.9415(1)",     "weightStandard": "50.9415(1)",             "electronConfiguration": "[Ar] 3d3 4s2",           "electronegativity": 1.63, "atomicRadius": 171, "ionizationEnergy": 650.9,   "electronAffinity": "50.911(20)"     },
  {"atomicNumber": 24,  "symbol": "Cr", "name": "Chromium",      "atomicMass": "51.9961(6)",     "weightStandard": "51.9961(6)",             "electronConfiguration": "[Ar] 3d5 4s1",           "electronegativity": 1.66, "atomicRadius": 166, "ionizationEnergy": 652.9,   "electronAffinity": "65.217 2(26)"   },
  {"atomicNumber": 25,  "symbol": "Mn", "name": "Manganese",     "atomicMass": "54.938045(5)",   "weightStandard": "54.938 043(2)",          "electronConfiguration": "[Ar] 3d5 4s2",           "electronegativity": 1.55, "atomicRadius": 161, "ionizationEnergy": 717.3,   "electronAffinity": "-50(19) est."   },
  {"atomicNumber": 26,  "symbol": "Fe", "name": "Iron",          "atomicMass": "55.845(2)",      "weightStandard": "55.845(2)",              "electronConfiguration": "[Ar] 3d6 4s2",           "electronegativity": 1.83, "atomicRadius": 156, "ionizationEnergy": 762.5,   "electronAffinity": "14.785(4)"      },
  {"atomicNumber": 27,  "symbol": "Co", "name": "Cobalt",        "atomicMass": "58.933195(5)",   "weightStandard": "58.933 194(3)",          "electronConfiguration": "[Ar] 3d7 4s2",           "electronegativity": 1.88, "atomicRadius": 152, "ionizationEnergy": 760.4,   "electronAffinity": "63.897 9(45)"   },
  {"atomicNumber": 28,  "symbol": "Ni", "name": "Nickel",        "atomicMass": "58.6934(4)",     "weightStandard": "58.6934(4)",             "electronConfiguration": "[Ar] 3d8 4s2",           "electronegativity": 1.91, "atomicRadius": 149, "ionizationEnergy": 737.1,   "electronAffinity": "111.65(2)"      },
  {"atomicNumber": 29,  "symbol": "Cu", "name": "Copper",        "atomicMass": "63.546(3)",      "weightStandard": "63.546(3)",              "electronConfiguration": "[Ar] 3d10 4s1",          "electronegativity": 1.9,  "atomicRadius": 145, "ionizationEnergy": 745.5,   "electronAffinity": "119.235(4)"     },
  {"atomicNumber": 30,  "symbol": "Zn", "name": "Zinc",          "atomicMass": "65.38(2)",       "weightStandard": "65.38(2)",               "electronConfiguration": "[Ar] 3d10 4s2",          "electronegativity": 1.65, "atomicRadius": 142, "ionizationEnergy": 906.4,   "electronAffinity": "-58(20) est."   },
  {"atomicNumber": 31,  "symbol": "Ga", "name": "Gallium",       "atomicMass": "69.723(1)",      "weightStandard": "69.723(1)",              "electronConfiguration": "[Ar] 3d10 4s2 4p1",      "electronegativity": 1.81, "atomicRadius": 136, "ionizationEnergy": 578.8,   "electronAffinity": "29.058 1(15)"   },
  {"atomicNumber": 32,  "symbol": "Ge", "name": "Germanium",     "atomicMass": "72.64(1)",       "weightStandard": "72.630(8)",              "electronConfiguration": "[Ar] 3d10 4s2 4p2",      "electronegativity": 2.01, "atomicRadius": 125, "ionizationEnergy": 762,     "electronAffinity": "118.935 2(2)"   },
  {"atomicNumber": 33,  "symbol": "As", "name": "Arsenic",       "atomicMass": "74.92160(2)",    "weightStandard": "74.921 595(6)",          "electronConfiguration": "[Ar] 3d10 4s2 4p3",      "electronegativity": 2.18, "atomicRadius": 114, "ionizationEnergy": 947.0,   "electronAffinity": "77.65(2)"       },
  {"atomicNumber": 34,  "symbol": "Se", "name": "Selenium",      "atomicMass": "78.96(3)",       "weightStandard": "78.971(8)",              "electronConfiguration": "[Ar] 3d10 4s2 4p4",      "electronegativity": 2.55, "atomicRadius": 103, "ionizationEnergy": 941.0,   "electronAffinity": "194.958 7(2)"   },
  {"atomicNumber": 35,  "symbol": "Br", "name": "Bromine",       "atomicMass": "79.904(1)",      "weightStandard": "[79.901, 79.907]",       "electronConfiguration": "[Ar] 3d10 4s2 4p5",      "electronegativity": 2.96, "atomicRadius": 94,  "ionizationEnergy": 1139.9,  "electronAffinity": "324.536 9(3)"   },
  {"atomicNumber": 36,  "symbol": "Kr", "name": "Krypton",       "atomicMass": "83.798(2)",      "weightStandard": "83.798(2)",              "electronConfiguration": "[Ar] 3d10 4s2 4p6",      "electronegativity": "",   "atomicRadius": 88,  "ionizationEnergy": 1350.8,  "electronAffinity": "-96(20) est."   },
  {"atomicNumber": 37,  "symbol": "Rb", "name": "Rubidium",      "atomicMass": "85.4678(3)",     "weightStandard": "85.4678(3)",             "electronConfiguration": "[Kr] 5s1",               "electronegativity": 0.82, "atomicRadius": 265, "ionizationEnergy": 403.0,   "electronAffinity": "46.884(3)"      },
  {"atomicNumber": 38,  "symbol": "Sr", "name": "Strontium",     "atomicMass": "87.62(1)",       "weightStandard": "87.62(1)",               "electronConfiguration": "[Kr] 5s2",               "electronegativity": 0.95, "atomicRadius": 219, "ionizationEnergy": 549.5,   "electronAffinity": "5.023(6)"       },
  {"atomicNumber": 39,  "symbol": "Y",  "name": "Yttrium",       "atomicMass": "88.90585(2)",    "weightStandard": "88.905 84(1)",           "electronConfiguration": "[Kr] 4d1 5s2",           "electronegativity": 1.22, "atomicRadius": 212, "ionizationEnergy": 600,     "electronAffinity": "30.035(21)"     },
  {"atomicNumber": 40,  "symbol": "Zr", "name": "Zirconium",     "atomicMass": "91.224(2)",      "weightStandard": "91.224(2)",              "electronConfiguration": "[Kr] 4d2 5s2",           "electronegativity": 1.33, "atomicRadius": 206, "ionizationEnergy": 640.1,   "electronAffinity": "41.806(9)"      },
  {"atomicNumber": 41,  "symbol": "Nb", "name": "Niobium",       "atomicMass": "92.90638(2)",    "weightStandard": "92.906 37(1)",           "electronConfiguration": "[Kr] 4d4 5s1",           "electronegativity": 1.6,  "atomicRadius": 198, "ionizationEnergy": 652.1,   "electronAffinity": "88.516(7)"      },
  {"atomicNumber": 42,  "symbol": "Mo", "name": "Molybdenum",    "atomicMass": "95.96(2)",       "weightStandard": "95.95(1)",               "electronConfiguration": "[Kr] 4d5 5s1",           "electronegativity": 2.16, "atomicRadius": 190, "ionizationEnergy": 684.3,   "electronAffinity": "72.097(8)"      },
  {"atomicNumber": 43,  "symbol": "Tc", "name": "Technetium",    "atomicMass": "[98]",           "weightStandard": "",                       "electronConfiguration": "[Kr] 4d5 5s2",           "electronegativity": 1.9,  "atomicRadius": 183, "ionizationEnergy": 702,     "electronAffinity": "53(20) est."    },
  {"atomicNumber": 44,  "symbol": "Ru", "name": "Ruthenium",     "atomicMass": "101.07(2)",      "weightStandard": "101.07(2)",              "electronConfiguration": "[Kr] 4d7 5s1",           "electronegativity": 2.2,  "atomicRadius": 178, "ionizationEnergy": 710.2,   "electronAffinity": "100.950(3)"     },
  {"atomicNumber": 45,  "symbol": "Rh", "name": "Rhodium",       "atomicMass": "102.90550(2)",   "weightStandard": "102.905 49(2)",          "electronConfiguration": "[Kr] 4d8 5s1",           "electronegativity": 2.28, "atomicRadius": 173, "ionizationEnergy": 719.7,   "electronAffinity": "110.27(2)"      },
  {"atomicNumber": 46,  "symbol": "Pd", "name": "Palladium",     "atomicMass": "106.42(1)",      "weightStandard": "106.42(1)",              "electronConfiguration": "[Kr] 4d10",              "electronegativity": 2.2,  "atomicRadius": 169, "ionizationEnergy": 804.4,   "electronAffinity": "54.24(2)"       },
  {"atomicNumber": 47,  "symbol": "Ag", "name": "Silver",        "atomicMass": "107.8682(2)",    "weightStandard": "107.8682(2)",            "electronConfiguration": "[Kr] 4d10 5s1",          "electronegativity": 1.93, "atomicRadius": 165, "ionizationEnergy": 731.0,   "electronAffinity": "125.862(3)"     },
  {"atomicNumber": 48,  "symbol": "Cd", "name": "Cadmium",       "atomicMass": "112.411(8)",     "weightStandard": "112.414(4)",             "electronConfiguration": "[Kr] 4d10 5s2",          "electronegativity": 1.69, "atomicRadius": 161, "ionizationEnergy": 867.8,   "electronAffinity": "-68(20) est."   },
  {"atomicNumber": 49,  "symbol": "In", "name": "Indium",        "atomicMass": "114.818(3)",     "weightStandard": "114.818(1)",             "electronConfiguration": "[Kr] 4d10 5s2 5p1",      "electronegativity": 1.78, "atomicRadius": 156, "ionizationEnergy": 558.3,   "electronAffinity": "37.043(6)"      },
  {"atomicNumber": 50,  "symbol": "Sn", "name": "Tin",           "atomicMass": "118.710(7)",     "weightStandard": "118.710(7)",             "electronConfiguration": "[Kr] 4d10 5s2 5p2",      "electronegativity": 1.96, "atomicRadius": 145, "ionizationEnergy": 708.6,   "electronAffinity": "107.298 4(3)"   },
  {"atomicNumber": 51,  "symbol": "Sb", "name": "Antimony",      "atomicMass": "121.760(1)",     "weightStandard": "121.760(1)",             "electronConfiguration": "[Kr] 4d10 5s2 5p3",      "electronegativity": 2.05, "atomicRadius": 133, "ionizationEnergy": 834,     "electronAffinity": "101.059(2)"     },
  {"atomicNumber": 52,  "symbol": "Te", "name": "Tellurium",     "atomicMass": "127.60(3)",      "weightStandard": "127.60(3)",              "electronConfiguration": "[Kr] 4d10 5s2 5p4",      "electronegativity": 2.1,  "atomicRadius": 123, "ionizationEnergy": 869.3,   "electronAffinity": "190.161(1)"     },
  {"atomicNumber": 53,  "symbol": "I",  "name": "Iodine",        "atomicMass": "126.90447(3)",   "weightStandard": "126.904 47(3)",          "electronConfiguration": "[Kr] 4d10 5s2 5p5",      "electronegativity": 2.66, "atomicRadius": 115, "ionizationEnergy": 1008.4,  "electronAffinity": "295.153 1(4)"   },
  {"atomicNumber": 54,  "symbol": "Xe", "name": "Xenon",         "atomicMass": "131.293(6)",     "weightStandard": "131.293(6)",             "electronConfiguration": "[Kr] 4d10 5s2 5p6",      "electronegativity": "",   "atomicRadius": 108, "ionizationEnergy": 1170.4,  "electronAffinity": "-77(20) est."   },
  {"atomicNumber": 55,  "symbol": "Cs", "name": "Cesium",        "atomicMass": "132.9054519(2)", "weightStandard": "132.905 451 96(6)",      "electronConfiguration": "[Xe] 6s1",               "electronegativity": 0.79, "atomicRadius": 298, "ionizationEnergy": 375.7,   "electronAffinity": "45.505(3)"      },
  {"atomicNumber": 56,  "symbol": "Ba", "name": "Barium",        "atomicMass": "137.327(7)",     "weightStandard": "137.327(7)",             "electronConfiguration": "[Xe] 6s2",               "electronegativity": 0.89, "atomicRadius": 253, "ionizationEnergy": 502.9,   "electronAffinity": "13.954(6)"      },
  {"atomicNumber": 57,  "symbol": "La", "name": "Lanthanum",     "atomicMass": "138.90547(7)",   "weightStandard": "138.905 47(7)",          "electronConfiguration": "[Xe] 5d1 6s2",           "electronegativity": 1.1,  "atomicRadius": 226, "ionizationEnergy": 538.1,   "electronAffinity": "53.795(2)"      },
  {"atomicNumber": 58,  "symbol": "Ce", "name": "Cerium",        "atomicMass": "140.116(1)",     "weightStandard": "140.116(1)",             "electronConfiguration": "[Xe] 4f1 5d1 6s2",       "electronegativity": 1.12, "atomicRadius": 210, "ionizationEnergy": 534.4,   "electronAffinity": "57.906 7(26)"   },
  {"atomicNumber": 59,  "symbol": "Pr", "name": "Praseodymium",  "atomicMass": "140.90765(2)",   "weightStandard": "140.907 66(1)",          "electronConfiguration": "[Xe] 4f3 6s2",           "electronegativity": 1.13, "atomicRadius": 247, "ionizationEnergy": 527,     "electronAffinity": "10.539(45)"     },
  {"atomicNumber": 60,  "symbol": "Nd", "name": "Neodymium",     "atomicMass": "144.242(3)",     "weightStandard": "144.242(3)",             "electronConfiguration": "[Xe] 4f4 6s2",           "electronegativity": 1.14, "atomicRadius": 206, "ionizationEnergy": 533.1,   "electronAffinity": "9.406(32)"      },
  {"atomicNumber": 61,  "symbol": "Pm", "name": "Promethium",    "atomicMass": "[145]",          "weightStandard": "",                       "electronConfiguration": "[Xe] 4f5 6s2",           "electronegativity": 1.13, "atomicRadius": 205, "ionizationEnergy": 540,     "electronAffinity": "12.45"          },
  {"atomicNumber": 62,  "symbol": "Sm", "name": "Samarium",      "atomicMass": "150.36(2)",      "weightStandard": "150.36(2)",              "electronConfiguration": "[Xe] 4f6 6s2",           "electronegativity": 1.17, "atomicRadius": 238, "ionizationEnergy": 544.5,   "electronAffinity": "15.63"          },
  {"atomicNumber": 63,  "symbol": "Eu", "name": "Europium",      "atomicMass": "151.964(1)",     "weightStandard": "151.964(1)",             "electronConfiguration": "[Xe] 4f7 6s2",           "electronegativity": 1.2,  "atomicRadius": 231, "ionizationEnergy": 547.1,   "electronAffinity": "11.2(13)"       },
  {"atomicNumber": 64,  "symbol": "Gd", "name": "Gadolinium",    "atomicMass": "157.25(3)",      "weightStandard": "157.25(3)",              "electronConfiguration": "[Xe] 4f7 5d1 6s2",       "electronegativity": 1.2,  "atomicRadius": 233, "ionizationEnergy": 593.4,   "electronAffinity": "20.5(29)"       },
  {"atomicNumber": 65,  "symbol": "Tb", "name": "Terbium",       "atomicMass": "158.92535(2)",   "weightStandard": "158.925 354(8)",         "electronConfiguration": "[Xe] 4f9 6s2",           "electronegativity": 1.2,  "atomicRadius": 225, "ionizationEnergy": 565.8,   "electronAffinity": "12.670(77)"     },
  {"atomicNumber": 66,  "symbol": "Dy", "name": "Dysprosium",    "atomicMass": "162.500(1)",     "weightStandard": "162.500(1)",             "electronConfiguration": "[Xe] 4f10 6s2",          "electronegativity": 1.22, "atomicRadius": 228, "ionizationEnergy": 573.0,   "electronAffinity": "1.45(30)"       },
  {"atomicNumber": 67,  "symbol": "Ho", "name": "Holmium",       "atomicMass": "164.93032(2)",   "weightStandard": "164.930 328(7)",         "electronConfiguration": "[Xe] 4f11 6s2",          "electronegativity": 1.23, "atomicRadius": 226, "ionizationEnergy": 581.0,   "electronAffinity": "32.61"          },
  {"atomicNumber": 68,  "symbol": "Er", "name": "Erbium",        "atomicMass": "167.259(3)",     "weightStandard": "167.259(3)",             "electronConfiguration": "[Xe] 4f12 6s2",          "electronegativity": 1.24, "atomicRadius": 226, "ionizationEnergy": 589.3,   "electronAffinity": "30.10"          },
  {"atomicNumber": 69,  "symbol": "Tm", "name": "Thulium",       "atomicMass": "168.93421(2)",   "weightStandard": "168.934 218(6)",         "electronConfiguration": "[Xe] 4f13 6s2",          "electronegativity": 1.25, "atomicRadius": 222, "ionizationEnergy": 596.7,   "electronAffinity": "99(3)"          },
  {"atomicNumber": 70,  "symbol": "Yb", "name": "Ytterbium",     "atomicMass": "173.054(5)",     "weightStandard": "173.045(10)",            "electronConfiguration": "[Xe] 4f14 6s2",          "electronegativity": 1.1,  "atomicRadius": 222, "ionizationEnergy": 603.4,   "electronAffinity": "-1.93 est."     },
  {"atomicNumber": 71,  "symbol": "Lu", "name": "Lutetium",      "atomicMass": "174.9668(1)",    "weightStandard": "174.9668(1)",            "electronConfiguration": "[Xe] 4f14 5d1 6s2",      "electronegativity": 1.27, "atomicRadius": 217, "ionizationEnergy": 523.5,   "electronAffinity": "23.04(7)"       },
  {"atomicNumber": 72,  "symbol": "Hf", "name": "Hafnium",       "atomicMass": "178.49(2)",      "weightStandard": "178.486(6)",             "electronConfiguration": "[Xe] 4f14 5d2 6s2",      "electronegativity": 1.3,  "atomicRadius": 208, "ionizationEnergy": 658.5,   "electronAffinity": "17.18(7)"       },
  {"atomicNumber": 73,  "symbol": "Ta", "name": "Tantalum",      "atomicMass": "180.94788(2)",   "weightStandard": "180.947 88(2)",          "electronConfiguration": "[Xe] 4f14 5d3 6s2",      "electronegativity": 1.5,  "atomicRadius": 200, "ionizationEnergy": 761,     "electronAffinity": "31.730 1(22)"   },
  {"atomicNumber": 74,  "symbol": "W",  "name": "Tungsten",      "atomicMass": "183.84(1)",      "weightStandard": "183.84(1)",              "electronConfiguration": "[Xe] 4f14 5d4 6s2",      "electronegativity": 2.36, "atomicRadius": 193, "ionizationEnergy": 770,     "electronAffinity": "78.76(1)"       },
  {"atomicNumber": 75,  "symbol": "Re", "name": "Rhenium",       "atomicMass": "186.207(1)",     "weightStandard": "186.207(1)",             "electronConfiguration": "[Xe] 4f14 5d5 6s2",      "electronegativity": 1.9,  "atomicRadius": 188, "ionizationEnergy": 760,     "electronAffinity": "5.827 3(62)"    },
  {"atomicNumber": 76,  "symbol": "Os", "name": "Osmium",        "atomicMass": "190.23(3)",      "weightStandard": "190.23(3)",              "electronConfiguration": "[Xe] 4f14 5d6 6s2",      "electronegativity": 2.2,  "atomicRadius": 185, "ionizationEnergy": 840,     "electronAffinity": "103.978 5(24)"  },
  {"atomicNumber": 77,  "symbol": "Ir", "name": "Iridium",       "atomicMass": "192.217(3)",     "weightStandard": "192.217(2)",             "electronConfiguration": "[Xe] 4f14 5d7 6s2",      "electronegativity": 2.2,  "atomicRadius": 180, "ionizationEnergy": 880,     "electronAffinity": "150.908 6(12)"  },
  {"atomicNumber": 78,  "symbol": "Pt", "name": "Platinum",      "atomicMass": "195.084(9)",     "weightStandard": "195.084(9)",             "electronConfiguration": "[Xe] 4f14 5d9 6s1",      "electronegativity": 2.28, "atomicRadius": 177, "ionizationEnergy": 870,     "electronAffinity": "205.041(5)"     },
  {"atomicNumber": 79,  "symbol": "Au", "name": "Gold",          "atomicMass": "196.966569(4)",  "weightStandard": "196.966 570(4)",         "electronConfiguration": "[Xe] 4f14 5d10 6s1",     "electronegativity": 2.54, "atomicRadius": 174, "ionizationEnergy": 890.1,   "electronAffinity": "222.747(3)"     },
  {"atomicNumber": 80,  "symbol": "Hg", "name": "Mercury",       "atomicMass": "200.59(2)",      "weightStandard": "200.592(3)",             "electronConfiguration": "[Xe] 4f14 5d10 6s2",     "electronegativity": 2,    "atomicRadius": 171, "ionizationEnergy": 1007.1,  "electronAffinity": "-48(20) est."   },
  {"atomicNumber": 81,  "symbol": "Tl", "name": "Thallium",      "atomicMass": "204.3833(2)",    "weightStandard": "[204.382, 204.385]",     "electronConfiguration": "[Xe] 4f14 5d10 6s2 6p1", "electronegativity": 2.04, "atomicRadius": 156, "ionizationEnergy": 589.4,   "electronAffinity": "30.880 4(19)"   },
  {"atomicNumber": 82,  "symbol": "Pb", "name": "Lead",          "atomicMass": "207.2(1)",       "weightStandard": "[206.14, 207.94]",       "electronConfiguration": "[Xe] 4f14 5d10 6s2 6p2", "electronegativity": 2.33, "atomicRadius": 154, "ionizationEnergy": 715.6,   "electronAffinity": "34.418 3(3)"    },
  {"atomicNumber": 83,  "symbol": "Bi", "name": "Bismuth",       "atomicMass": "208.98040(1)",   "weightStandard": "208.980 40(1)",          "electronConfiguration": "[Xe] 4f14 5d10 6s2 6p3", "electronegativity": 2.02, "atomicRadius": 143, "ionizationEnergy": 703,     "electronAffinity": "90.924(2)"      },
  {"atomicNumber": 84,  "symbol": "Po", "name": "Polonium",      "atomicMass": "[209]",          "weightStandard": "",                       "electronConfiguration": "[Xe] 4f14 5d10 6s2 6p4", "electronegativity": 2,    "atomicRadius": 135, "ionizationEnergy": 812.1,   "electronAffinity": "136(7) calc."   },
  {"atomicNumber": 85,  "symbol": "At", "name": "Astatine",      "atomicMass": "[210]",          "weightStandard": "",                       "electronConfiguration": "[Xe] 4f14 5d10 6s2 6p5", "electronegativity": 2.2,  "atomicRadius": 127, "ionizationEnergy": 899.003, "electronAffinity": "233.087(8)"     },
  {"atomicNumber": 86,  "symbol": "Rn", "name": "Radon",         "atomicMass": "[222]",          "weightStandard": "",                       "electronConfiguration": "[Xe] 4f14 5d10 6s2 6p6", "electronegativity": "",   "atomicRadius": 120, "ionizationEnergy": 1037,    "electronAffinity": "-68(20) est."   },
  {"atomicNumber": 87,  "symbol": "Fr", "name": "Francium",      "atomicMass": "[223]",          "weightStandard": "",                       "electronConfiguration": "[Rn] 7s1",               "electronegativity": 0.7,  "atomicRadius": "",  "ionizationEnergy": 393,     "electronAffinity": "46.89 est."     },
  {"atomicNumber": 88,  "symbol": "Ra", "name": "Radium",        "atomicMass": "[226]",          "weightStandard": "",                       "electronConfiguration": "[Rn] 7s2",               "electronegativity": 0.9,  "atomicRadius": "",  "ionizationEnergy": 509.3,   "electronAffinity": "9.648 5 est."   },
  {"atomicNumber": 89,  "symbol": "Ac", "name": "Actinium",      "atomicMass": "[227]",          "weightStandard": "",                       "electronConfiguration": "[Rn] 6d1 7s2",           "electronegativity": 1.1,  "atomicRadius": "",  "ionizationEnergy": 499,     "electronAffinity": "33.77 est."     },
  {"atomicNumber": 90,  "symbol": "Th", "name": "Thorium",       "atomicMass": "232.03806(2)",   "weightStandard": "232.0377(4)",            "electronConfiguration": "[Rn] 6d2 7s2",           "electronegativity": 1.3,  "atomicRadius": "",  "ionizationEnergy": 587,     "electronAffinity": "58.633(6)"      },
  {"atomicNumber": 91,  "symbol": "Pa", "name": "Protactinium",  "atomicMass": "231.03588(2)",   "weightStandard": "231.035 88(1)",          "electronConfiguration": "[Rn] 5f2 6d1 7s2",       "electronegativity": 1.5,  "atomicRadius": "",  "ionizationEnergy": 568,     "electronAffinity": "53.03 est."     },
  {"atomicNumber": 92,  "symbol": "U",  "name": "Uranium",       "atomicMass": "238.02891(3)",   "weightStandard": "238.028 91(3)",          "electronConfiguration": "[Rn] 5f3 6d1 7s2",       "electronegativity": 1.38, "atomicRadius": "",  "ionizationEnergy": 597.6,   "electronAffinity": "30.390(9)"      },
  {"atomicNumber": 93,  "symbol": "Np", "name": "Neptunium",     "atomicMass": "[237]",          "weightStandard": "",                       "electronConfiguration": "[Rn] 5f4 6d1 7s2",       "electronegativity": 1.36, "atomicRadius": "",  "ionizationEnergy": 604.5,   "electronAffinity": "45.85 est."     },
  {"atomicNumber": 94,  "symbol": "Pu", "name": "Plutonium",     "atomicMass": "[244]",          "weightStandard": "",                       "electronConfiguration": "[Rn] 5f6 7s2",           "electronegativity": 1.28, "atomicRadius": "",  "ionizationEnergy": 584.7,   "electronAffinity": "-48.33 est."    },
  {"atomicNumber": 95,  "symbol": "Am", "name": "Americium",     "atomicMass": "[243]",          "weightStandard": "",                       "electronConfiguration": "[Rn] 5f7 7s2",           "electronegativity": 1.3,  "atomicRadius": "",  "ionizationEnergy": 578,     "electronAffinity": "9.93 est."      },
  {"atomicNumber": 96,  "symbol": "Cm", "name": "Curium",        "atomicMass": "[247]",          "weightStandard": "",                       "electronConfiguration": "[Rn] 5f7 6d1 7s2",       "electronegativity": 1.3,  "atomicRadius": "",  "ionizationEnergy": 581,     "electronAffinity": "27.17 est."     },
  {"atomicNumber": 97,  "symbol": "Bk", "name": "Berkelium",     "atomicMass": "[247]",          "weightStandard": "",                       "electronConfiguration": "[Rn] 5f9 7s2",           "electronegativity": 1.3,  "atomicRadius": "",  "ionizationEnergy": 601,     "electronAffinity": "-165.24 est."   },
  {"atomicNumber": 98,  "symbol": "Cf", "name": "Californium",   "atomicMass": "[251]",          "weightStandard": "",                       "electronConfiguration": "[Rn] 5f10 7s2",          "electronegativity": 1.3,  "atomicRadius": "",  "ionizationEnergy": 608,     "electronAffinity": "-97.31 est."    },
  {"atomicNumber": 99,  "symbol": "Es", "name": "Einsteinium",   "atomicMass": "[252]",          "weightStandard": "",                       "electronConfiguration": "[Rn] 5f11 7s2",          "electronegativity": 1.3,  "atomicRadius": "",  "ionizationEnergy": 619,     "electronAffinity": "-28.60 est."    },
  {"atomicNumber": 100, "symbol": "Fm", "name": "Fermium",       "atomicMass": "[257]",          "weightStandard": "",                       "electronConfiguration": "[Rn] 5f12 7s2",          "electronegativity": 1.3,  "atomicRadius": "",  "ionizationEnergy": 629,     "electronAffinity": "33.96 est."     },
  {"atomicNumber": 101, "symbol": "Md", "name": "Mendelevium",   "atomicMass": "[258]",          "weightStandard": "",                       "electronConfiguration": "[Rn] 5f13 7s2",          "electronegativity": 1.3,  "atomicRadius": "",  "ionizationEnergy": 636,     "electronAffinity": "93.91 est."     },
  {"atomicNumber": 102, "symbol": "No", "name": "Nobelium",      "atomicMass": "[259]",          "weightStandard": "",                       "electronConfiguration": "[Rn] 5f14 7s2",          "electronegativity": 1.3,  "atomicRadius": "",  "ionizationEnergy": 639,     "electronAffinity": "-223.22 est."   },
  {"atomicNumber": 103, "symbol": "Lr", "name": "Lawrencium",    "atomicMass": "[262]",          "weightStandard": "",                       "electronConfiguration": "[Rn] 5f14 7s2 7p1",      "electronegativity": 1.3,  "atomicRadius": "",  "ionizationEnergy": 479,     "electronAffinity": "-30.04 est."    },
  {"atomicNumber": 104, "symbol": "Rf", "name": "Rutherfordium", "atomicMass": "[267]",          "weightStandard": "",                       "electronConfiguration": "[Rn] 5f14 6d2 7s2",      "electronegativity": "",   "atomicRadius": "",  "ionizationEnergy": 580,     "electronAffinity": ""               },
  {"atomicNumber": 105, "symbol": "Db", "name": "Dubnium",       "atomicMass": "[268]",          "weightStandard": "",                       "electronConfiguration": "[Rn] 5f14 6d3 7s2",      "electronegativity": "",   "atomicRadius": "",  "ionizationEnergy": 665,     "electronAffinity": ""               },
  {"atomicNumber": 106, "symbol": "Sg", "name": "Seaborgium",    "atomicMass": "[271]",          "weightStandard": "",                       "electronConfiguration": "[Rn] 5f14 6d4 7s2",      "electronegativity": "",   "atomicRadius": "",  "ionizationEnergy": 757,     "electronAffinity": ""               },
  {"atomicNumber": 107, "symbol": "Bh", "name": "Bohrium",       "atomicMass": "[272]",          "weightStandard": "",                       "electronConfiguration": "[Rn] 5f14 6d5 7s2",      "electronegativity": "",   "atomicRadius": "",  "ionizationEnergy": 740,     "electronAffinity": ""               },
  {"atomicNumber": 108, "symbol": "Hs", "name": "Hassium",       "atomicMass": "[270]",          "weightStandard": "",                       "electronConfiguration": "[Rn] 5f14 6d6 7s2",      "electronegativity": "",   "atomicRadius": "",  "ionizationEnergy": 730,     "electronAffinity": ""               },
  {"atomicNumber": 109, "symbol": "Mt", "name": "Meitnerium",    "atomicMass": "[276]",          "weightStandard": "",                       "electronConfiguration": "[Rn] 5f14 6d7 7s2",      "electronegativity": "",   "atomicRadius": "",  "ionizationEnergy": 800,     "electronAffinity": ""               },
  {"atomicNumber": 110, "symbol": "Ds", "name": "Darmstadtium",  "atomicMass": "[281]",          "weightStandard": "",                       "electronConfiguration": "[Rn] 5f14 6d9 7s1",      "electronegativity": "",   "atomicRadius": "",  "ionizationEnergy": 960,     "electronAffinity": ""               },
  {"atomicNumber": 111, "symbol": "Rg", "name": "Roentgenium",   "atomicMass": "[280]",          "weightStandard": "",                       "electronConfiguration": "[Rn] 5f14 6d10 7s1",     "electronegativity": "",   "atomicRadius": "",  "ionizationEnergy": 1020,    "electronAffinity": "151.0 calc."    },
  {"atomicNumber": 112, "symbol": "Cn", "name": "Copernicium",   "atomicMass": "[285]",          "weightStandard": "",                       "electronConfiguration": "[Rn] 5f14 6d10 7s2",     "electronegativity": "",   "atomicRadius": "",  "ionizationEnergy": 1155,    "electronAffinity": ""               },
  {"atomicNumber": 113, "symbol": "Nh", "name": "Nihonium",      "atomicMass": "[284]",          "weightStandard": "",                       "electronConfiguration": "[Rn] 5f14 6d10 7s2 7p1", "electronegativity": "",   "atomicRadius": "",  "ionizationEnergy": 707.2,   "electronAffinity": "66.6 calc."     },
  {"atomicNumber": 114, "symbol": "Fl", "name": "Flerovium",     "atomicMass": "[289]",          "weightStandard": "",                       "electronConfiguration": "[Rn] 5f14 6d10 7s2 7p2", "electronegativity": "",   "atomicRadius": "",  "ionizationEnergy": 832.2,   "electronAffinity": ""               },
  {"atomicNumber": 115, "symbol": "Mc", "name": "Moscovium",     "atomicMass": "[288]",          "weightStandard": "",                       "electronConfiguration": "[Rn] 5f14 6d10 7s2 7p3", "electronegativity": "",   "atomicRadius": "",  "ionizationEnergy": 538.3,   "electronAffinity": "35.3 calc."     },
  {"atomicNumber": 116, "symbol": "Lv", "name": "Livermorium",   "atomicMass": "[293]",          "weightStandard": "",                       "electronConfiguration": "[Rn] 5f14 6d10 7s2 7p4", "electronegativity": "",   "atomicRadius": "",  "ionizationEnergy": 663.9,   "electronAffinity": "74.9 calc."     },
  {"atomicNumber": 117, "symbol": "Ts", "name": "Tennessine",    "atomicMass": "[294]",          "weightStandard": "",                       "electronConfiguration": "[Rn] 5f14 6d10 7s2 7p5", "electronegativity": "",   "atomicRadius": "",  "ionizationEnergy": 736.9,   "electronAffinity": "165.9 calc."    },
  {"atomicNumber": 118, "symbol": "Og", "name": "Oganesson",     "atomicMass": "[294]",          "weightStandard": "",                       "electronConfiguration": "[Rn] 5f14 6d10 7s2 7p6", "electronegativity": "",   "atomicRadius": "",  "ionizationEnergy": 860.1,   "electronAffinity": "7.72(58) calc." }]